! TOUCHSTONE file generated by CST MICROWAVE STUDIO
! Date and time: Sat Mar 20 20:07:13 2021
! Project name: test_v14dpp.cst
! Parameters = {addx=1; addy=1; ant_d=0.2; ant_h=0.63; ant_w=0.885; bars_diameter=0.018; bars_distance=0.0357647; bars_no=16; box_left_xc=-0.095; box_mid_w=0.225; box_mid_xc=0.1875; box_outer_w=0.28; bridge_h=0.04; bridge_outer_yc=0; bridge_thickness=0.02; clearance=0.062; coax_a=0.054; coax_b=0.081; coax_left_xc=-0.095; coax_left_yc=0; coax_length=0.3; coax_mid_shift=0.02; coax_mid_xc=0.1675; coax_mid_yc=0.194; coax_right_xc=0.2075; coax_right_yc=0; coax_thickness=0.01; limiter_protrusion=0.015; limiter_width=0.06; load_depth=0.3; load_epsr=225; load_height=1.75; load_tand=1.17; load_width=2.005; port_h=0.8; port_margin=0.025; port_w=0.68; rounding_rad=0.005; sept_vert=0.03; strap_gapbottom=0.015; strap_gapbridge=0.035; strap_gapbw=0.016; strap_gapfs=0.015; strap_gaphole=0.03; strap_gaptop=0.015; strap_inner_width=0.12; strap_outer_gapseptum=0.055; strap_outer_width=0.1; strap_thickness=0.02; strip_chamfer=0.02; stripe_gapfs=0.015; stripe_thickness=0.02; stripe_width=0.05; wall_thickness=0.02}
! Header version: 2018
! Port assignment regex: !\s*Touchstone port\s*([0-9]+)\s*=\s*(CST MWS port|CST DS port)\s*([0-9]+|Zmin|Zmax)\s*\(\"(.*)\"\)(\s*mode\s*([0-9]+))?.*
! Touchstone port assignment:
! Touchstone port 1 = CST MWS port 1 ("")
! Touchstone port 2 = CST MWS port 2 ("")
! Touchstone port 3 = CST MWS port 3 ("")
! Touchstone port 4 = CST MWS port 4 ("")
! S-Parameters are not renormalized. Unphysical impedance of 50 will be written to the file.
# MHz S MA R 50
55                      0.972678         67.6024         0.141358        -18.7391        0.0214309         -21.327       0.00674933         1.44914
                        0.141386        -18.7391         0.972932         67.5958       0.00807144        -38.9413       0.00687235         -178.05
                       0.0214352        -21.3272       0.00807146        -38.9415         0.975357         66.5965       0.00387334       -0.561247
                      0.00675136          1.4493       0.00687309        -178.049       0.00387374       -0.561361         0.975447         91.8041
55.5                    0.972611         66.8423         0.141778        -19.5049        0.0213268        -22.1895       0.00683943        0.501634
                        0.141806        -19.5048         0.972865         66.8352       0.00778552        -40.3599       0.00696024        -179.009
                        0.021331        -22.1896       0.00778554        -40.3601         0.975166         65.5007       0.00392522        -1.72667
                      0.00684148        0.501801       0.00696098        -179.009       0.00392562         -1.7268         0.975265         90.9249
56                      0.972547         66.0861          0.14219        -20.2664        0.0212166        -23.0511       0.00692823       -0.447323
                        0.142218        -20.2663           0.9728         66.0785       0.00749604         -41.813       0.00704669        -179.969
                       0.0212209        -23.0512       0.00749605        -41.8132         0.974972         64.4022       0.00397821        -2.88698
                      0.00693032       -0.447156       0.00704745        -179.969       0.00397862        -2.88712         0.975081         90.0433
56.5                    0.972483         65.3338         0.142594        -21.0237        0.0211005        -23.9115        0.0070158        -1.39644
                        0.142622        -21.0235         0.972736         65.3256        0.0072031        -43.3072       0.00713179         179.071
                       0.0211047        -23.9116       0.00720311        -43.3074         0.974776         63.3009       0.00403235        -4.04376
                      0.00701792        -1.39628       0.00713256         179.071       0.00403277        -4.04392         0.974896         89.1593
57                      0.972422         64.5853          0.14299        -21.7768        0.0209786        -24.7702       0.00710223        -2.34463
                        0.143018        -21.7767         0.972674         64.5765       0.00690686        -44.8498       0.00721562         178.111
                       0.0209827        -24.7702       0.00690686        -44.8499         0.974577         62.1968       0.00408764        -5.19845
                      0.00710438        -2.34449       0.00721639         178.112       0.00408806        -5.19864         0.974709         88.2729
57.5                    0.972362         63.8405         0.143379        -22.5259        0.0208509        -25.6268       0.00718759        -3.29102
                        0.143407        -22.5257         0.972614         63.8313       0.00660745        -46.4499       0.00729826         177.154
                        0.020855        -25.6269       0.00660745          -46.45         0.974376         61.0899       0.00414409        -6.35241
                      0.00718977        -3.29086       0.00729904         177.154       0.00414452        -6.35254         0.974521         87.3842
58                      0.972304         63.0996          0.14376         -23.271        0.0207176        -26.4811       0.00727199        -4.23484
                        0.143789        -23.2709         0.972554         63.0898       0.00630503        -48.1179       0.00737983           176.2
                       0.0207217        -26.4812       0.00630503         -48.118         0.974173           59.98       0.00420169        -7.50667
                      0.00727419        -4.23471       0.00738061           176.2       0.00420213        -7.50681         0.974333          86.493
58.5                    0.972248         62.3623         0.144135        -24.0122        0.0205788        -27.3327       0.00735551        -5.17552
                        0.144163        -24.0121         0.972497          62.352       0.00599976        -49.8669        0.0074604         175.248
                       0.0205829        -27.3327       0.00599976         -49.867         0.973969         58.8672       0.00426044        -8.66224
                      0.00735774        -5.17541        0.0074612         175.248       0.00426088        -8.66238         0.974145         85.5994
59                      0.972194         61.6288         0.144502        -24.7497        0.0204347        -28.1814       0.00743827        -6.11265
                        0.144531        -24.7496         0.972441         61.6179       0.00569189        -51.7124       0.00754009         174.301
                       0.0204388        -28.1814       0.00569189        -51.7124         0.973763         57.7514       0.00432032        -9.81998
                      0.00744053        -6.11256       0.00754089         174.301       0.00432076        -9.82011         0.973956         84.7034
59.5                    0.972142         60.8989         0.144864        -25.4834        0.0202854        -29.0269       0.00752035        -7.04589
                        0.144892        -25.4833         0.972387         60.8875       0.00538166        -53.6738         0.007619         173.357
                       0.0202894        -29.0269       0.00538166        -53.6738         0.973557         56.6325       0.00438131        -10.9806
                      0.00752263        -7.04582       0.00761981         173.357       0.00438176        -10.9807         0.973768          83.805
60                      0.972092         60.1726         0.145218        -26.2135         0.020131         -29.869       0.00760186        -7.97507
                        0.145247        -26.2135         0.972336         60.1607       0.00506944         -55.775       0.00769722         172.417
                       0.0201351         -29.869       0.00506944         -55.775         0.973349         55.5105       0.00444339        -12.1446
                      0.00760417        -7.97501       0.00769803         172.417       0.00444384        -12.1447         0.973579          82.904
60.5                    0.972044           59.45         0.145567        -26.9401        0.0199718        -30.7076       0.00768289        -8.90006
                        0.145596          -26.94         0.972285         59.4375       0.00475566        -58.0469       0.00777485         171.481
                       0.0199758        -30.7076       0.00475566        -58.0469         0.973142         54.3854       0.00450654        -13.3125
                      0.00768522        -8.90003       0.00777567         171.481         0.004507        -13.3126         0.973392         82.0006
61                      0.971998         58.7308          0.14591        -27.6631        0.0198077        -31.5425       0.00776353        -9.82087
                        0.145939        -27.6631         0.972238         58.7178       0.00444094        -60.5279       0.00785199         170.549
                       0.0198117        -31.5425       0.00444094        -60.5279         0.972934         53.2569       0.00457073        -14.4846
                      0.00776589        -9.82085       0.00785281         170.549       0.00457119        -14.4847         0.973205         81.0946
61.5                    0.971955         58.0152         0.146247        -28.3828         0.019639        -32.3734       0.00784387        -10.7375
                        0.146276        -28.3827         0.972192         58.0016       0.00412606        -63.2696       0.00792871         169.622
                       0.0196429        -32.3734       0.00412606        -63.2696         0.972726         52.1251       0.00463594        -15.6613
                      0.00784626        -10.7375       0.00792954         169.622       0.00463641        -15.6613          0.97302          80.186
62                      0.971913          57.303         0.146579         -29.099        0.0194658        -33.2004       0.00792401        -11.6501
                        0.146608         -29.099         0.972148         57.2889       0.00381214        -66.3377       0.00800511         168.698
                       0.0194697        -33.2004       0.00381214        -66.3377         0.972518         50.9899       0.00470214        -16.8426
                      0.00792641        -11.6502       0.00800594         168.698       0.00470262        -16.8426         0.972835         79.2749
62.5                    0.971874         56.5942         0.146904         -29.812        0.0192882        -34.0233         0.008004        -12.5589
                        0.146934         -29.812         0.972106         56.5796       0.00350069        -69.8225       0.00808125         167.778
                       0.0192921        -34.0233       0.00350069        -69.8225          0.97231         49.8512       0.00476932        -18.0288
                      0.00800643        -12.5589       0.00808209         167.778       0.00476981        -18.0288         0.972652         78.3612
63                      0.971837         55.8888         0.147225        -30.5217        0.0191063         -34.842       0.00808394        -13.4639
                        0.147255        -30.5217         0.972066         55.8736       0.00319386        -73.8421       0.00815722         166.861
                       0.0191102         -34.842       0.00319386        -73.8421         0.972103          48.709       0.00483746        -19.2198
                      0.00808639         -13.464       0.00815806         166.861       0.00483796        -19.2198          0.97247         77.4448
63.5                    0.971802         55.1867         0.147541        -31.2283        0.0189203        -35.6564       0.00816387        -14.3656
                         0.14757        -31.2283         0.972028          55.171       0.00289475        -78.5599       0.00823307         165.948
                       0.0189241        -35.6564       0.00289475        -78.5599         0.971896         47.5631       0.00490654        -20.4157
                      0.00816635        -14.3656       0.00823392         165.948       0.00490704        -20.4157         0.972289         76.5257
64                      0.971769          54.488         0.147851        -31.9317        0.0187303        -36.4664       0.00824388         -15.264
                        0.147881        -31.9317         0.971992         54.4717        0.0026078        -84.1897       0.00830886         165.038
                        0.018734        -36.4664        0.0026078        -84.1897         0.971689         46.4135       0.00497653        -21.6165
                      0.00824638         -15.264       0.00830972         165.038       0.00497704        -21.6165          0.97211          75.604
64.5                    0.971738         53.7925         0.148157         -32.632        0.0185363        -37.2719         0.008324        -16.1594
                        0.148186         -32.632         0.971958         53.7757       0.00233965        -91.0153       0.00838466          164.13
                         0.01854        -37.2719       0.00233965        -91.0152         0.971483         45.2602       0.00504744        -22.8221
                      0.00832652        -16.1595       0.00838552          164.13       0.00504796        -22.8221         0.971932         74.6795
65                       0.97171         53.1001         0.148458        -33.3293        0.0183385        -38.0729        0.0084043        -17.0522
                        0.148487        -33.3293         0.971926         53.0828       0.00209978        -99.3645       0.00846049         163.225
                       0.0183421        -38.0729       0.00209978        -99.3645         0.971277          44.103       0.00511923        -24.0324
                      0.00840684        -17.0523       0.00846136         163.225       0.00511976        -24.0324         0.971756         73.7523
65.5                    0.971683          52.411         0.148754        -34.0236        0.0181369        -38.8692       0.00848481        -17.9426
                        0.148784        -34.0236         0.971896         52.3931       0.00190176        -109.553       0.00853642         162.322
                       0.0181405        -38.8692       0.00190176        -109.553         0.971071         42.9418       0.00519192        -25.2475
                      0.00848738        -17.9427        0.0085373         162.322       0.00519245        -25.2475         0.971582         72.8223
66                      0.971658          51.725         0.149046        -34.7149        0.0179318        -39.6608       0.00856558        -18.8309
                        0.149075        -34.7149         0.971867         51.7066       0.00176247        -121.667       0.00861247         161.421
                       0.0179353        -39.6609       0.00176247        -121.667         0.970866         41.7766       0.00526548         -26.467
                      0.00856817         -18.831       0.00861336         161.421       0.00526602         -26.467         0.971409         71.8895
66.5                    0.971635         51.0421         0.149333        -35.4033         0.017723        -40.4476       0.00864664        -19.7174
                        0.149363        -35.4033          0.97184         51.0231       0.00169976        -135.285       0.00868868         160.522
                       0.0177266        -40.4476       0.00169976        -135.285         0.970661         40.6073       0.00533991        -27.6911
                      0.00864925        -19.7174       0.00868957         160.522       0.00534047        -27.6911         0.971238         70.9539
67                      0.971614         50.3622         0.149616        -36.0888        0.0175108        -41.2295       0.00872802        -20.6022
                        0.149646        -36.0888         0.971815         50.3427       0.00172481         -149.34       0.00876507         159.624
                       0.0175143        -41.2295       0.00172481         -149.34         0.970457         39.4338       0.00541522        -28.9195
                      0.00873065        -20.6023       0.00876597         159.624       0.00541579        -28.9195         0.971068         70.0154
67.5                    0.971594         49.6853         0.149895        -36.7714        0.0172953        -42.0063       0.00880974        -21.4858
                        0.149925        -36.7714         0.971791         49.6653       0.00183717        -162.541       0.00884167         158.727
                       0.0172987        -42.0064       0.00183717        -162.541         0.970252         38.2561        0.0054914        -30.1521
                       0.0088124        -21.4858       0.00884257         158.727       0.00549197        -30.1521           0.9709         69.0741
68                      0.971576         49.0114          0.15017        -37.4513        0.0170764         -42.778       0.00889183        -22.3682
                          0.1502        -37.4513         0.971769         48.9908       0.00202478        -174.025       0.00891849          157.83
                       0.0170798         -42.778       0.00202478        -174.025         0.970048         37.0741       0.00556846        -31.3889
                      0.00889452        -22.3683       0.00891941          157.83       0.00556904        -31.3889         0.970734         68.1298
68.5                     0.97156         48.3405         0.150441        -38.1284        0.0168543        -43.5444       0.00897431        -23.2498
                        0.150471        -38.1284         0.971748         48.3193       0.00227162          176.43       0.00899555         156.935
                       0.0168577        -43.5444       0.00227162          176.43         0.969844         35.8876       0.00564639        -32.6297
                      0.00897702        -23.2498       0.00899648         156.935       0.00564698        -32.6297         0.970569         67.1826
69                      0.971545         47.6724         0.150708        -38.8027        0.0166291        -44.3053       0.00905719        -24.1308
                        0.150738        -38.8027         0.971728         47.6507       0.00256259         168.623       0.00907287          156.04
                       0.0166324        -44.3053       0.00256259         168.623          0.96964         34.6967       0.00572521        -33.8745
                      0.00905993        -24.1308       0.00907381          156.04        0.0057258        -33.8745         0.970405         66.2325
69.5                    0.971532         47.0072         0.150972        -39.4743        0.0164008        -45.0605       0.00914048        -25.0112
                        0.151002        -39.4743          0.97171         46.9849       0.00288636         162.226       0.00915045         155.145
                        0.016404        -45.0606       0.00288636         162.226         0.969436         33.5012       0.00580492        -35.1232
                      0.00914325        -25.0112        0.0091514         155.145       0.00580552        -35.1232         0.970243         65.2794
70                       0.97152         46.3448         0.151232        -40.1432        0.0161694          -45.81        0.0092242        -25.8915
                        0.151262        -40.1432         0.971692          46.322       0.00323471         156.916       0.00922831          154.25
                       0.0161727          -45.81       0.00323471         156.916         0.969232         32.3011       0.00588553        -36.3757
                      0.00922699        -25.8915       0.00922926          154.25       0.00588614        -36.3757         0.970083         64.3233
70.5                    0.971509         45.6852         0.151489        -40.8095        0.0159352        -46.5534       0.00930835        -26.7716
                        0.151519        -40.8095         0.971676         45.6618       0.00360208         152.438       0.00930644         153.355
                       0.0159383        -46.5534       0.00360208         152.438         0.969028         31.0962       0.00596705        -37.6319
                      0.00931116        -26.7716        0.0093074         153.355       0.00596767         -37.632         0.969924         63.3642
71                      0.971499         45.0283         0.151742        -41.4732         0.015698        -47.2904       0.00939294        -27.6518
                        0.151772        -41.4731         0.971661         45.0044       0.00398455         148.595       0.00938484          152.46
                       0.0157012        -47.2904       0.00398455         148.595         0.968824         29.8866       0.00604949        -38.8919
                      0.00939578        -27.6517       0.00938581          152.46       0.00605011        -38.8919         0.969766         62.4021
71.5                    0.971491         44.3742         0.151992        -42.1342        0.0154581        -48.0209       0.00947797        -28.5321
                        0.152023        -42.1342         0.971646         44.3497       0.00437945         145.241       0.00946353         151.564
                       0.0154612        -48.0209       0.00437945         145.241          0.96862         28.6721       0.00613286        -40.1556
                      0.00948084        -28.5321       0.00946451         151.564        0.0061335        -40.1556          0.96961         61.4369
72                      0.971484         43.7227          0.15224        -42.7927        0.0152154        -48.7445       0.00956345        -29.4128
                         0.15227        -42.7927         0.971632         43.6977       0.00478479         142.268        0.0095425         150.667
                       0.0152184        -48.7445       0.00478479         142.268         0.968415         27.4526       0.00621719        -41.4229
                      0.00956634        -29.4128       0.00954349         150.667       0.00621783        -41.4229         0.969456         60.4687
72.5                    0.971477         43.0738         0.152484        -43.4486        0.0149701        -49.4609       0.00964937        -30.2939
                        0.152514        -43.4486         0.971619         43.0483       0.00519921         139.597       0.00962175          149.77
                        0.014973        -49.4609       0.00519922         139.597          0.96821         26.2281       0.00630248        -42.6939
                      0.00965229        -30.2938       0.00962275          149.77       0.00630313        -42.6939         0.969302         59.4974
73                      0.971471         42.4276         0.152726        -44.1021        0.0147221        -50.1697       0.00973575        -31.1755
                        0.152756         -44.102         0.971607         42.4015       0.00562164         137.167       0.00970128         148.873
                        0.014725        -50.1696       0.00562165         137.167         0.968005         24.9985       0.00638874        -43.9686
                      0.00973869        -31.1754       0.00970229         148.873        0.0063894        -43.9686          0.96915         58.5229
73.5                    0.971467         41.7839         0.152964         -44.753        0.0144716        -50.8704       0.00982258        -32.0576
                        0.152995         -44.753         0.971595         41.7572       0.00605131         134.931       0.00978109         147.974
                       0.0144745        -50.8703       0.00605131         134.931           0.9678         23.7637         0.006476        -45.2469
                      0.00982555        -32.0576       0.00978211         147.974       0.00647667        -45.2469         0.968999         57.5454
74                      0.971462         41.1427         0.153201        -45.4015        0.0142187        -51.5626       0.00990986        -32.9405
                        0.153231        -45.4015         0.971584         41.1155       0.00648758         132.855       0.00986118         147.074
                       0.0142215        -51.5625       0.00648758         132.855         0.967594         22.5236       0.00656427        -46.5289
                      0.00991286        -32.9404        0.0098622         147.074       0.00656495        -46.5289          0.96885         56.5647
74.5                    0.971459         40.5041         0.153435        -46.0476        0.0139633        -52.2458       0.00999759        -33.8241
                        0.153465        -46.0476         0.971573         40.4763       0.00692997          130.91       0.00994154         146.174
                       0.0139661        -52.2457       0.00692998          130.91         0.967389         21.2782       0.00665357        -47.8146
                       0.0100006         -33.824       0.00994257         146.174       0.00665426        -47.8147         0.968701         55.5808
75                      0.971456         39.8679         0.153666        -46.6913        0.0137056        -52.9194        0.0100858        -34.7084
                        0.153697        -46.6913         0.971563         39.8396       0.00737809         129.075        0.0100222         145.272
                       0.0137084        -52.9193       0.00737809         129.075         0.967182         20.0274       0.00674391        -49.1041
                       0.0100888        -34.7084        0.0100232         145.272        0.0067446        -49.1041         0.968554         54.5938
75.5                    0.971454         39.2341         0.153895        -47.3326        0.0134457        -53.5827        0.0101744        -35.5936
                        0.153926        -47.3326         0.971552         39.2053       0.00783162         127.333        0.0101031         144.369
                       0.0134484        -53.5827       0.00783162         127.333         0.966976          18.771       0.00683531        -50.3974
                       0.0101775        -35.5936        0.0101041         144.369       0.00683601        -50.3974         0.968408         53.6036
76                      0.971452         38.6027         0.154123        -47.9716        0.0131837        -54.2352        0.0102635        -36.4797
                        0.154153        -47.9716         0.971542         38.5734       0.00829028          125.67        0.0101842         143.465
                       0.0131863        -54.2352       0.00829028          125.67         0.966768         17.5091       0.00692778        -51.6946
                       0.0102666        -36.4797        0.0101853         143.465        0.0069285        -51.6946         0.968263         52.6102
76.5                     0.97145         37.9737         0.154348        -48.6083        0.0129195         -54.876        0.0103531        -37.3667
                        0.154379        -48.6083         0.971532         37.9439       0.00875384         124.073        0.0102657          142.56
                       0.0129221         -54.876       0.00875385         124.073         0.966561         16.2415       0.00702135        -52.9956
                       0.0103562        -37.3666        0.0102667          142.56       0.00702207        -52.9956         0.968119         51.6135
77                      0.971449          37.347         0.154571        -49.2427        0.0126534        -55.5044        0.0104431        -38.2545
                        0.154602        -49.2427         0.971523         37.3167       0.00922211         122.534        0.0103474         141.654
                       0.0126559        -55.5043       0.00922211         122.534         0.966353         14.9681       0.00711602        -54.3007
                       0.0104463        -38.2545        0.0103485         141.654       0.00711676        -54.3007         0.967977         50.6137
77.5                    0.971448         36.7227         0.154793        -49.8748        0.0123853        -56.1192        0.0105336        -39.1434
                        0.154824        -49.8748         0.971513         36.6918        0.0096949         121.044        0.0104293         140.746
                       0.0123878        -56.1192       0.00969491         121.044         0.966144         13.6889       0.00721182        -55.6097
                       0.0105368        -39.1434        0.0104304         140.746       0.00721257        -55.6098         0.967835         49.6106
78                      0.971446         36.1005         0.155013        -50.5048        0.0121155        -56.7197        0.0106245        -40.0332
                        0.155044        -50.5048         0.971502         36.0692        0.0101721         119.598        0.0105116         139.837
                       0.0121179        -56.7197        0.0101721         119.598         0.965935         12.4038       0.00730877         -56.923
                       0.0106278        -40.0332        0.0105127         139.837       0.00730952         -56.923         0.967694         48.6042
78.5                    0.971445         35.4807         0.155232        -51.1325        0.0118439        -57.3046         0.010716         -40.924
                        0.155263        -51.1325         0.971492         35.4488        0.0106534          118.19        0.0105941         138.927